                         Program Version 4.1.2  - RELEASE  -
|  1> ! tightscf engrad pbe def2-TZVP Numfreq
|  2> %pal nprocs 16 end
|  3>
|  4> *xyz 0 1
|  5> C 1.89271128185181 -1.05419179009022 -0.00015272736093
|  6> C 2.15707694346286 0.31811646042833 -0.00030782196824
|  7> C 1.10924067683468 1.22566974007702 -0.0001400647627
|  8> C -0.19891889890503 0.75127710583881 0.00017186009379
|  9> C 0.58957575458896 -1.5384667402107 0.00017482613879
| 10> C -0.45300469778095 -0.62062033246942 0.00032982445915
| 11> C -1.42159804269724 1.57162528314641 0.00030560688562
| 12> C -2.63146576071734 0.67714660966465 0.00041807162759
| 13> H 2.71689965388642 -1.75645402788804 -0.00029075851018
| 14> H 3.18068916415964 0.66848585612276 -0.00056651290326
| 15> H 1.28065208115206 2.29479456391421 -0.00027066822822
| 16> H 0.39577166877983 -2.60352570546857 0.0002901055403
| 17> S -2.17115498595443 -1.022393876218 0.0007097983486
| 18> O -1.46797864621618 2.78596786775483 8.98533438e-05
| 19> C -3.86428664035018 1.21723215034857 0.00026557882978
| 20> C -5.18174179967452 0.6163646966056 0.00023832889518
| 21> C -5.42555792459805 -0.76707199588359 0.00015284936299
| 22> H -4.60564239171201 -1.46941755605291 8.485227116e-05
| 23> C -6.72177832413546 -1.25785713579258 8.293637805e-05
| 24> H -6.88727564063513 -2.32797041227394 5.488605e-08
| 25> C -7.80659474181924 -0.38676561614245 9.986526815e-05
| 26> H -8.81655482347733 -0.77632562453617 4.11194571e-05
| 27> C -7.58576379509636 0.9866301817917 0.0001785863264
| 28> H -8.42358479100916 1.67201582950035 0.00018186623748
| 29> C -6.29135020868369 1.47915387118115 0.00024204400748
| 30> H -6.12111008578313 2.54921904732604 0.00028752037267
| 31> H -3.84695502547083 2.30445154932615 0.0001130050034
| 32> *
| 33>
| 34>                          ****END OF INPUT****

CARTESIAN COORDINATES (ANGSTROEM)
---------------------------------
  C      1.892711   -1.054192   -0.000153
  C      2.157077    0.318116   -0.000308
  C      1.109241    1.225670   -0.000140
  C     -0.198919    0.751277    0.000172
  C      0.589576   -1.538467    0.000175
  C     -0.453005   -0.620620    0.000330
  C     -1.421598    1.571625    0.000306
  C     -2.631466    0.677147    0.000418
  H      2.716900   -1.756454   -0.000291
  H      3.180689    0.668486   -0.000567
  H      1.280652    2.294795   -0.000271
  H      0.395772   -2.603526    0.000290
  S     -2.171155   -1.022394    0.000710
  O     -1.467979    2.785968    0.000090
  C     -3.864287    1.217232    0.000266
  C     -5.181742    0.616365    0.000238
  C     -5.425558   -0.767072    0.000153
  H     -4.605642   -1.469418    0.000085
  C     -6.721778   -1.257857    0.000083
  H     -6.887276   -2.327970    0.000000
  C     -7.806595   -0.386766    0.000100
  H     -8.816555   -0.776326    0.000041
  C     -7.585764    0.986630    0.000179
  H     -8.423585    1.672016    0.000182
  C     -6.291350    1.479154    0.000242
  H     -6.121110    2.549219    0.000288
  H     -3.846955    2.304452    0.000113

 Total Charge           Charge          ....    0
 Multiplicity           Mult            ....    1
 Number of Electrons    NEL             ....  124
 Basis Dimension        Dim             ....  593

ORBITAL ENERGIES
----------------

  NO   OCC          E(Eh)            E(eV)
   0   2.0000     -88.075559     -2396.6578
   1   2.0000     -18.736845      -509.8555
   2   2.0000      -9.967992      -271.2429
   3   2.0000      -9.935639      -270.3625
   4   2.0000      -9.928663      -270.1727
   5   2.0000      -9.911996      -269.7191
   6   2.0000      -9.908417      -269.6217
   7   2.0000      -9.907164      -269.5876
   8   2.0000      -9.906249      -269.5627
   9   2.0000      -9.903860      -269.4977
  10   2.0000      -9.902756      -269.4677
  11   2.0000      -9.899278      -269.3730
  12   2.0000      -9.899201      -269.3710
  13   2.0000      -9.899053      -269.3669
  14   2.0000      -9.898631      -269.3554
  15   2.0000      -9.897760      -269.3317
  16   2.0000      -9.897044      -269.3123
  17   2.0000      -7.700435      -209.5395
  18   2.0000      -5.721707      -155.6956
  19   2.0000      -5.717873      -155.5912
  20   2.0000      -5.713294      -155.4666
  21   2.0000      -0.954660       -25.9776
  22   2.0000      -0.820774       -22.3344
  23   2.0000      -0.799610       -21.7585
  24   2.0000      -0.769215       -20.9314
  25   2.0000      -0.725792       -19.7498
  26   2.0000      -0.704371       -19.1669
  27   2.0000      -0.691120       -18.8063
  28   2.0000      -0.681157       -18.5352
  29   2.0000      -0.647920       -17.6308
  30   2.0000      -0.612508       -16.6672
  31   2.0000      -0.569680       -15.5018
  32   2.0000      -0.559717       -15.2307
  33   2.0000      -0.548946       -14.9376
  34   2.0000      -0.525777       -14.3071
  35   2.0000      -0.501037       -13.6339
  36   2.0000      -0.473334       -12.8801
  37   2.0000      -0.450083       -12.2474
  38   2.0000      -0.438891       -11.9428
  39   2.0000      -0.434481       -11.8228
  40   2.0000      -0.417994       -11.3742
  41   2.0000      -0.406416       -11.0591
  42   2.0000      -0.401880       -10.9357
  43   2.0000      -0.393765       -10.7149
  44   2.0000      -0.388459       -10.5705
  45   2.0000      -0.380923       -10.3654
  46   2.0000      -0.379327       -10.3220
  47   2.0000      -0.368272       -10.0212
  48   2.0000      -0.355045        -9.6613
  49   2.0000      -0.340892        -9.2761
  50   2.0000      -0.332968        -9.0605
  51   2.0000      -0.330249        -8.9865
  52   2.0000      -0.319677        -8.6988
  53   2.0000      -0.310535        -8.4501
  54   2.0000      -0.306914        -8.3516
  55   2.0000      -0.302807        -8.2398
  56   2.0000      -0.276463        -7.5229
  57   2.0000      -0.249046        -6.7769
  58   2.0000      -0.244966        -6.6659
  59   2.0000      -0.234569        -6.3829
  60   2.0000      -0.217181        -5.9098
  61   2.0000      -0.195898        -5.3306
  62   0.0000      -0.120773        -3.2864
  63   0.0000      -0.064604        -1.7580
  64   0.0000      -0.055737        -1.5167
  65   0.0000      -0.050882        -1.3846
  66   0.0000      -0.025566        -0.6957

MULLIKEN ATOMIC CHARGES
-----------------------
   0 C :   -0.079309
   1 C :   -0.084317
   2 C :   -0.225833
   3 C :    0.064974
   4 C :   -0.253710
   5 C :    0.133320
   6 C :    0.169235
   7 C :    0.072764
   8 H :    0.111938
   9 H :    0.116969
  10 H :    0.133256
  11 H :    0.119732
  12 S :   -0.062719
  13 O :   -0.261396
  14 C :   -0.320974
  15 C :    0.400605
  16 C :   -0.183560
  17 H :    0.117690
  18 C :   -0.148573
  19 H :    0.121549
  20 C :   -0.088269
  21 H :    0.115516
  22 C :   -0.124845
  23 H :    0.105865
  24 C :   -0.218954
  25 H :    0.124303
  26 H :    0.144741
Sum of atomic charges:   -0.0000000

LOEWDIN ATOMIC CHARGES
----------------------
   0 C :   -0.120755
   1 C :   -0.137494
   2 C :   -0.076299
   3 C :   -0.124644
   4 C :   -0.139970
   5 C :   -0.304078
   6 C :   -0.310138
   7 C :   -0.321552
   8 H :    0.148572
   9 H :    0.146637
  10 H :    0.157373
  11 H :    0.148640
  12 S :    0.695013
  13 O :    0.149698
  14 C :   -0.087706
  15 C :   -0.138101
  16 C :   -0.098540
  17 H :    0.141490
  18 C :   -0.136599
  19 H :    0.148274
  20 C :   -0.130137
  21 H :    0.145755
  22 C :   -0.136469
  23 H :    0.147177
  24 C :   -0.091988
  25 H :    0.152408
  26 H :    0.173433

  Mayer bond orders larger than 0.1
B(  0-C ,  1-C ) :   1.3391 B(  0-C ,  4-C ) :   1.3728 B(  0-C ,  8-H ) :   0.9834
B(  1-C ,  2-C ) :   1.3767 B(  1-C ,  9-H ) :   0.9812 B(  2-C ,  3-C ) :   1.3126
B(  2-C , 10-H ) :   0.9815 B(  3-C ,  5-C ) :   1.2998 B(  3-C ,  6-C ) :   0.9861
B(  3-C , 13-O ) :  -0.1081 B(  4-C ,  5-C ) :   1.2551 B(  4-C , 11-H ) :   1.0065
B(  5-C , 12-S ) :   1.1630 B(  6-C ,  7-C ) :   0.9577 B(  6-C , 13-O ) :   2.0908
B(  7-C , 12-S ) :   1.1315 B(  7-C , 13-O ) :  -0.1042 B(  7-C , 14-C ) :   1.5644
B( 13-O , 14-C ) :   0.1194 B( 14-C , 15-C ) :   0.9847 B( 14-C , 26-H ) :   0.9318
B( 15-C , 16-C ) :   1.2377 B( 15-C , 24-C ) :   1.2274 B( 16-C , 17-H ) :   0.9799
B( 16-C , 18-C ) :   1.4071 B( 18-C , 19-H ) :   0.9850 B( 18-C , 20-C ) :   1.3506
B( 20-C , 21-H ) :   0.9679 B( 20-C , 22-C ) :   1.3735 B( 22-C , 23-H ) :   0.9914
B( 22-C , 24-C ) :   1.4017 B( 24-C , 25-H ) :   0.9867

FINAL SINGLE POINT ENERGY     -1050.306111291392

DIPOLE MOMENT
-------------
                                X             Y             Z
Electronic contribution:      4.35948       0.44152       0.00192
Nuclear contribution   :     -4.51724      -1.41338      -0.00206
                        -----------------------------------------
Total Dipole Moment    :     -0.15776      -0.97186      -0.00014
                        -----------------------------------------
Magnitude (a.u.)       :      0.98458
Magnitude (Debye)      :      2.50261

VIBRATIONAL FREQUENCIES
-----------------------

Scaling factor for frequencies =  1.000000000 (already applied!)

   0:         0.00 cm**-1
   1:         0.00 cm**-1
   2:         0.00 cm**-1
   3:         0.00 cm**-1
   4:         0.00 cm**-1
   5:         0.00 cm**-1
   6:       -88.38 cm**-1 ***imaginary mode***
   7:       -40.26 cm**-1 ***imaginary mode***
   8:        49.58 cm**-1
   9:        56.61 cm**-1
  10:        91.72 cm**-1
  11:       183.78 cm**-1
  12:       192.79 cm**-1
  13:       237.60 cm**-1
  14:       240.65 cm**-1
  15:       272.90 cm**-1
  16:       357.57 cm**-1
  17:       372.28 cm**-1
  18:       410.50 cm**-1
  19:       419.40 cm**-1
  20:       470.85 cm**-1
  21:       474.31 cm**-1
  22:       500.54 cm**-1
  23:       524.54 cm**-1
  24:       550.54 cm**-1
  25:       604.56 cm**-1
  26:       630.20 cm**-1
  27:       651.02 cm**-1
  28:       658.66 cm**-1
  29:       678.88 cm**-1
  30:       686.51 cm**-1
  31:       708.98 cm**-1
  32:       718.40 cm**-1
  33:       752.61 cm**-1
  34:       762.43 cm**-1
  35:       804.01 cm**-1
  36:       812.09 cm**-1
  37:       834.20 cm**-1
  38:       865.62 cm**-1
  39:       882.46 cm**-1
  40:       888.99 cm**-1
  41:       895.85 cm**-1
  42:       898.28 cm**-1
  43:       901.04 cm**-1
  44:       994.44 cm**-1
  45:      1020.78 cm**-1
  46:      1030.54 cm**-1
  47:      1034.63 cm**-1
  48:      1060.20 cm**-1
  49:      1083.90 cm**-1
  50:      1104.00 cm**-1
  51:      1137.89 cm**-1
  52:      1140.40 cm**-1
  53:      1162.65 cm**-1
  54:      1199.07 cm**-1
  55:      1216.29 cm**-1
  56:      1261.33 cm**-1
  57:      1283.35 cm**-1
  58:      1306.05 cm**-1
  59:      1380.78 cm**-1
  60:      1385.28 cm**-1
  61:      1440.90 cm**-1
  62:      1442.71 cm**-1
  63:      1449.74 cm**-1
  64:      1485.30 cm**-1
  65:      1585.61 cm**-1
  66:      1591.64 cm**-1
  67:      1603.52 cm**-1
  68:      1611.69 cm**-1
  69:      1632.48 cm**-1
  70:      1745.92 cm**-1
  71:      3136.75 cm**-1
  72:      3175.50 cm**-1
  73:      3180.62 cm**-1
  74:      3181.70 cm**-1
  75:      3192.04 cm**-1
  76:      3192.53 cm**-1
  77:      3197.59 cm**-1
  78:      3203.63 cm**-1
  79:      3208.84 cm**-1
  80:      3217.45 cm**-1

IR SPECTRUM
-----------

 Mode    freq (cm**-1)   T**2         TX         TY         TZ
-------------------------------------------------------------------
   8:        49.58    0.409092  (  0.301013   0.564343   0.000579)
   9:        56.61    0.971746  (  0.000799  -0.004780   0.985760)
  10:        91.72    0.185906  ( -0.019797  -0.003874   0.430696)
  11:       183.78    0.040129  (  0.036195  -0.005360   0.196953)
  12:       192.79    0.409457  (  0.486408   0.415769   0.001097)
  13:       237.60    1.389462  (  0.016118  -0.001529   1.178643)
  14:       240.65    0.975354  (  0.466819  -0.870306  -0.001114)
  15:       272.90    6.347173  (  2.517420   0.098846  -0.000289)
  16:       357.57    0.023271  (  0.002130   0.000311   0.152532)
  17:       372.28    0.668015  ( -0.010347  -0.001208  -0.817255)
  18:       410.50    9.376957  ( -0.043387   0.000663  -3.061874)
  19:       419.40    9.379937  (  2.841760   1.142047  -0.007963)
  20:       470.85    0.048875  ( -0.012791   0.020610  -0.219742)
  21:       474.31    6.239367  ( -2.494998   0.119778   0.002415)
  22:       500.54   21.892897  (  0.006872   0.008196  -4.678972)
  23:       524.54   21.127172  (  4.570056   0.491690  -0.000652)
  24:       550.54   10.290433  ( -3.098006   0.832339  -0.001823)
  25:       604.56    0.531903  (  0.234510   0.690585  -0.000644)
  26:       630.20   45.341083  (  0.000805   0.000886  -6.733579)
  27:       651.02    2.549213  (  0.723640  -1.423217   0.003286)
  28:       658.66   24.789117  ( -0.030415   0.002662  -4.978773)
  29:       678.88    2.526127  ( -0.984398  -1.247785   0.010969)
  30:       686.51   45.947984  (  0.016000  -0.016127  -6.778456)
  31:       708.98   13.130723  ( -3.582486   0.544528  -0.002904)
  32:       718.40    8.000483  (  0.007787   0.010171  -2.828483)
  33:       752.61    0.420496  (  0.006976   0.001444  -0.648418)
  34:       762.43    1.838066  (  0.048532   0.022426   1.354698)
  35:       804.01    0.539680  (  0.730034  -0.082037  -0.000971)
  36:       812.09    0.985027  (  0.023421   0.014568   0.992102)
  37:       834.20    0.174551  (  0.017488   0.005073  -0.417396)
  38:       865.62    1.098220  (  0.010216   0.003726  -1.047904)
  39:       882.46    0.360476  (  0.011651   0.003404   0.600274)
  40:       888.99    7.586317  (  0.019989   0.003370  -2.754252)
  41:       895.85    0.746397  ( -0.012473   0.002062   0.863850)
  42:       898.28    3.821102  ( -1.472381   1.285764  -0.002811)
  43:       901.04    2.188237  (  0.006458   0.004595  -1.479248)
  44:       994.44    1.423680  ( -1.191893   0.055412   0.000012)
  45:      1020.78   48.610177  (  6.969132   0.203410  -0.000345)
  46:      1030.54   30.081791  ( -5.463519  -0.481411  -0.000105)
  47:      1034.63   72.863069  (  8.461997   1.121461   0.000113)
  48:      1060.20  117.182801  ( 10.665471   1.852171  -0.000793)
  49:      1083.90   22.672935  ( -4.480285   1.612447   0.000083)
  50:      1104.00    0.231141  ( -0.480770   0.000882   0.000320)
  51:      1137.89    0.520529  ( -0.547078   0.470356  -0.000050)
  52:      1140.40   10.881088  (  3.004408  -1.361844  -0.000059)
  53:      1162.65    4.443796  (  2.105296  -0.107356   0.000069)
  54:      1199.07   17.983283  (  3.795973  -1.890468   0.000178)
  55:      1216.29    8.764052  ( -2.597105   1.420949  -0.000169)
  56:      1261.33   98.510838  (  9.762164  -1.791926  -0.000570)
  57:      1283.35    0.416200  (  0.298783   0.571776  -0.000665)
  58:      1306.05    6.215697  ( -1.745297  -1.780347   0.000400)
  59:      1380.78    6.923697  ( -2.619387  -0.250014   0.000134)
  60:      1385.28   14.190980  (  3.016105   2.257010  -0.000516)
  61:      1440.90   30.824243  ( -5.529136   0.502892   0.001263)
  62:      1442.71   46.613471  ( -5.685926  -3.779381   0.000745)
  63:      1449.74   12.453570  (  3.528822  -0.031425  -0.000573)
  64:      1485.30   16.024639  ( -3.949831  -0.650746   0.000276)
  65:      1585.61   23.438883  (  3.358929   3.486614  -0.000268)
  66:      1591.64   31.481565  (  3.977313   3.957594  -0.000161)
  67:      1603.52   51.232372  (  4.906153  -5.211721  -0.000634)
  68:      1611.69   71.278199  (  8.359736   1.180258  -0.000765)
  69:      1632.48  136.935560  ( 10.639391   4.872261  -0.000658)
  70:      1745.92  195.242329  (  3.246332  13.590572  -0.000251)
  71:      3136.75    0.061288  (  0.245259  -0.033698   0.000208)
  72:      3175.50    3.404569  (  1.483573   1.097078   0.000057)
  73:      3180.62    0.139355  (  0.339608   0.154990  -0.000234)
  74:      3181.70    0.024063  (  0.015135  -0.154383  -0.000026)
  75:      3192.04    7.634993  (  0.509031  -2.715857  -0.000306)
  76:      3192.53    5.020680  (  0.517619   2.180080  -0.000117)
  77:      3197.59    9.062632  (  1.118815  -2.794796   0.000025)
  78:      3203.63   23.284549  ( -4.822417   0.169826  -0.000098)
  79:      3208.84   19.446093  ( -4.345802   0.748396   0.000461)
  80:      3217.45    0.762538  (  0.305302  -0.818125   0.000384)

--------------------------
THERMOCHEMISTRY AT 298.15K
--------------------------

Temperature         ... 298.15 K
Pressure            ... 1.00 atm
Total Mass          ... 238.30 AMU

Throughout the following assumptions are being made:
  (1) The electronic state is orbitally nondegenerate
  (2) There are no thermally accessible electronically excited states
  (3) Hindered rotations indicated by low frequency modes are not
      treated as such but are treated as vibrations and this may
      cause some error
  (4) All equations used are the standard statistical mechanics
      equations for an ideal gas
  (5) All vibrations are strictly harmonic

freq.      49.58  E(vib)   ...       0.52
freq.      56.61  E(vib)   ...       0.52
freq.      91.72  E(vib)   ...       0.47
freq.     183.78  E(vib)   ...       0.37
freq.     192.79  E(vib)   ...       0.36
freq.     237.60  E(vib)   ...       0.32
freq.     240.65  E(vib)   ...       0.31
freq.     272.90  E(vib)   ...       0.29
freq.     357.57  E(vib)   ...       0.22
freq.     372.28  E(vib)   ...       0.21
freq.     410.50  E(vib)   ...       0.19
freq.     419.40  E(vib)   ...       0.18
freq.     470.85  E(vib)   ...       0.15
freq.     474.31  E(vib)   ...       0.15
freq.     500.54  E(vib)   ...       0.14
freq.     524.54  E(vib)   ...       0.13
freq.     550.54  E(vib)   ...       0.12
freq.     604.56  E(vib)   ...       0.10
freq.     630.20  E(vib)   ...       0.09
freq.     651.02  E(vib)   ...       0.08
freq.     658.66  E(vib)   ...       0.08
freq.     678.88  E(vib)   ...       0.08
freq.     686.51  E(vib)   ...       0.07
freq.     708.98  E(vib)   ...       0.07
freq.     718.40  E(vib)   ...       0.07
freq.     752.61  E(vib)   ...       0.06
freq.     762.43  E(vib)   ...       0.06
freq.     804.01  E(vib)   ...       0.05
freq.     812.09  E(vib)   ...       0.05
freq.     834.20  E(vib)   ...       0.04
freq.     865.62  E(vib)   ...       0.04
freq.     882.46  E(vib)   ...       0.04
freq.     888.99  E(vib)   ...       0.04
freq.     895.85  E(vib)   ...       0.03
freq.     898.28  E(vib)   ...       0.03
freq.     901.04  E(vib)   ...       0.03
freq.     994.44  E(vib)   ...       0.02
freq.    1020.78  E(vib)   ...       0.02
freq.    1030.54  E(vib)   ...       0.02
freq.    1034.63  E(vib)   ...       0.02
freq.    1060.20  E(vib)   ...       0.02
freq.    1083.90  E(vib)   ...       0.02
freq.    1104.00  E(vib)   ...       0.02
freq.    1137.89  E(vib)   ...       0.01
freq.    1140.40  E(vib)   ...       0.01
freq.    1162.65  E(vib)   ...       0.01
freq.    1199.07  E(vib)   ...       0.01
freq.    1216.29  E(vib)   ...       0.01
freq.    1261.33  E(vib)   ...       0.01
freq.    1283.35  E(vib)   ...       0.01
freq.    1306.05  E(vib)   ...       0.01
freq.    1380.78  E(vib)   ...       0.01
freq.    1385.28  E(vib)   ...       0.00
freq.    1440.90  E(vib)   ...       0.00
freq.    1442.71  E(vib)   ...       0.00
freq.    1449.74  E(vib)   ...       0.00
freq.    1485.30  E(vib)   ...       0.00
freq.    1585.61  E(vib)   ...       0.00
freq.    1591.64  E(vib)   ...       0.00
freq.    1603.52  E(vib)   ...       0.00
freq.    1611.69  E(vib)   ...       0.00
freq.    1632.48  E(vib)   ...       0.00
freq.    1745.92  E(vib)   ...       0.00
freq.    3136.75  E(vib)   ...       0.00
freq.    3175.50  E(vib)   ...       0.00
freq.    3180.62  E(vib)   ...       0.00
freq.    3181.70  E(vib)   ...       0.00
freq.    3192.04  E(vib)   ...       0.00
freq.    3192.53  E(vib)   ...       0.00
freq.    3197.59  E(vib)   ...       0.00
freq.    3203.63  E(vib)   ...       0.00
freq.    3208.84  E(vib)   ...       0.00
freq.    3217.45  E(vib)   ...       0.00

------------
INNER ENERGY
------------

The inner energy is: U= E(el) + E(ZPE) + E(vib) + E(rot) + E(trans)
    E(el)   - is the total energy from the electronic structure calculation
              = E(kin-el) + E(nuc-el) + E(el-el) + E(nuc-nuc)
    E(ZPE)  - the the zero temperature vibrational energy from the frequency calculation
    E(vib)  - the the finite temperature correction to E(ZPE) due to population
              of excited vibrational states
    E(rot)  - is the rotational thermal energy
    E(trans)- is the translational thermal energy

Summary of contributions to the inner energy U:
Electronic energy                ...  -1050.30611129 Eh
Zero point energy                ...      0.19892652 Eh     124.83 kcal/mol
Thermal vibrational correction   ...      0.00958421 Eh       6.01 kcal/mol
Thermal rotational correction    ...      0.00141627 Eh       0.89 kcal/mol
Thermal translational correction ...      0.00141627 Eh       0.89 kcal/mol
-----------------------------------------------------------------------
Total thermal energy                  -1050.09476802 Eh

Summary of corrections to the electronic energy:
(perhaps to be used in another calculation)
Total thermal correction                  0.01241676 Eh       7.79 kcal/mol
Non-thermal (ZPE) correction              0.19892652 Eh     124.83 kcal/mol
-----------------------------------------------------------------------
Total correction                          0.21134328 Eh     132.62 kcal/mol

--------
ENTHALPY
--------

The enthalpy is H = U + kB*T
                kB is Boltzmann's constant
Total free energy                 ...  -1050.09476802 Eh
Thermal Enthalpy correction       ...      0.00094421 Eh       0.59 kcal/mol
-----------------------------------------------------------------------
Total Enthalpy                    ...  -1050.09382381 Eh

Note: Rotational entropy computed according to Herzberg
Infrared and Raman Spectra, Chapter V,1, Van Nostrand Reinhold, 1945
Point Group:  C1, Symmetry Number:   1
Rotational constants in cm-1:     0.044290     0.007164     0.006167

Vibrational entropy computed according to the QRRHO of S. Grimme
Chem.Eur.J. 2012 18 9955

-------
ENTROPY
-------

The entropy contributions are T*S = T*(S(el)+S(vib)+S(rot)+S(trans))
     S(el)   - electronic entropy
     S(vib)  - vibrational entropy
     S(rot)  - rotational entropy
     S(trans)- translational entropy
The entropies will be listed as mutliplied by the temperature to get
units of energy

Electronic entropy                ...      0.00000000 Eh      0.00 kcal/mol
Vibrational entropy               ...      0.01574629 Eh      9.88 kcal/mol
Rotational entropy                ...      0.01571608 Eh      9.86 kcal/mol
Translational entropy             ...      0.02010110 Eh     12.61 kcal/mol
-----------------------------------------------------------------------
Final entropy term                ...      0.05156347 Eh     32.36 kcal/mol

                             ****ORCA TERMINATED NORMALLY****
TOTAL RUN TIME: 0 days 0 hours 38 minutes 35 seconds 289 msec
