                         Program Version 4.1.2  - RELEASE  -
|  1> ! tightscf engrad pbe def2-SVP
|  2> %pal nprocs 4 end
|  3> %tddft nroots 3 maxdim 10 end
|  4>
|  5> *xyz 0 1
|  6> C 1.89271128185181 -1.05419179009022 -0.00015272736093
|  7> C 2.15707694346286 0.31811646042833 -0.00030782196824
|  8> C 1.10924067683468 1.22566974007702 -0.0001400647627
|  9> C -0.19891889890503 0.75127710583881 0.00017186009379
| 10> C 0.58957575458896 -1.5384667402107 0.00017482613879
| 11> C -0.45300469778095 -0.62062033246942 0.00032982445915
| 12> C -1.42159804269724 1.57162528314641 0.00030560688562
| 13> C -2.63146576071734 0.67714660966465 0.00041807162759
| 14> H 2.71689965388642 -1.75645402788804 -0.00029075851018
| 15> H 3.18068916415964 0.66848585612276 -0.00056651290326
| 16> H 1.28065208115206 2.29479456391421 -0.00027066822822
| 17> H 0.39577166877983 -2.60352570546857 0.0002901055403
| 18> S -2.17115498595443 -1.022393876218 0.0007097983486
| 19> O -1.46797864621618 2.78596786775483 8.98533438e-05
| 20> C -3.86428664035018 1.21723215034857 0.00026557882978
| 21> C -5.18174179967452 0.6163646966056 0.00023832889518
| 22> C -5.42555792459805 -0.76707199588359 0.00015284936299
| 23> H -4.60564239171201 -1.46941755605291 8.485227116e-05
| 24> C -6.72177832413546 -1.25785713579258 8.293637805e-05
| 25> H -6.88727564063513 -2.32797041227394 5.488605e-08
| 26> C -7.80659474181924 -0.38676561614245 9.986526815e-05
| 27> H -8.81655482347733 -0.77632562453617 4.11194571e-05
| 28> C -7.58576379509636 0.9866301817917 0.0001785863264
| 29> H -8.42358479100916 1.67201582950035 0.00018186623748
| 30> C -6.29135020868369 1.47915387118115 0.00024204400748
| 31> H -6.12111008578313 2.54921904732604 0.00028752037267
| 32> H -3.84695502547083 2.30445154932615 0.0001130050034
| 33> *
| 34>
| 35>                          ****END OF INPUT****

CARTESIAN COORDINATES (ANGSTROEM)
---------------------------------
  C      1.892711   -1.054192   -0.000153
  C      2.157077    0.318116   -0.000308
  C      1.109241    1.225670   -0.000140
  C     -0.198919    0.751277    0.000172
  C      0.589576   -1.538467    0.000175
  C     -0.453005   -0.620620    0.000330
  C     -1.421598    1.571625    0.000306
  C     -2.631466    0.677147    0.000418
  H      2.716900   -1.756454   -0.000291
  H      3.180689    0.668486   -0.000567
  H      1.280652    2.294795   -0.000271
  H      0.395772   -2.603526    0.000290
  S     -2.171155   -1.022394    0.000710
  O     -1.467979    2.785968    0.000090
  C     -3.864287    1.217232    0.000266
  C     -5.181742    0.616365    0.000238
  C     -5.425558   -0.767072    0.000153
  H     -4.605642   -1.469418    0.000085
  C     -6.721778   -1.257857    0.000083
  H     -6.887276   -2.327970    0.000000
  C     -7.806595   -0.386766    0.000100
  H     -8.816555   -0.776326    0.000041
  C     -7.585764    0.986630    0.000179
  H     -8.423585    1.672016    0.000182
  C     -6.291350    1.479154    0.000242
  H     -6.121110    2.549219    0.000288
  H     -3.846955    2.304452    0.000113

 Total Charge           Charge          ....    0
 Multiplicity           Mult            ....    1
 Number of Electrons    NEL             ....  124
 Basis Dimension        Dim             ....  292

ORBITAL ENERGIES
----------------

  NO   OCC          E(Eh)            E(eV)
   0   2.0000     -88.062136     -2396.2925
   1   2.0000     -18.745022      -510.0780
   2   2.0000      -9.978019      -271.5157
   3   2.0000      -9.942095      -270.5381
   4   2.0000      -9.934332      -270.3269
   5   2.0000      -9.919819      -269.9320
   6   2.0000      -9.918699      -269.9015
   7   2.0000      -9.918113      -269.8856
   8   2.0000      -9.917768      -269.8762
   9   2.0000      -9.914935      -269.7991
  10   2.0000      -9.910364      -269.6747
  11   2.0000      -9.910215      -269.6707
  12   2.0000      -9.910169      -269.6694
  13   2.0000      -9.910038      -269.6658
  14   2.0000      -9.909734      -269.6576
  15   2.0000      -9.909143      -269.6415
  16   2.0000      -9.908286      -269.6182
  17   2.0000      -7.705053      -209.6652
  18   2.0000      -5.732678      -155.9941
  19   2.0000      -5.728798      -155.8885
  20   2.0000      -5.722952      -155.7294
  21   2.0000      -0.941090       -25.6084
  22   2.0000      -0.815378       -22.1876
  23   2.0000      -0.791157       -21.5285
  24   2.0000      -0.763509       -20.7761
  25   2.0000      -0.718056       -19.5393
  26   2.0000      -0.696074       -18.9411
  27   2.0000      -0.682104       -18.5610
  28   2.0000      -0.672885       -18.3101
  29   2.0000      -0.642501       -17.4833
  30   2.0000      -0.605938       -16.4884
  31   2.0000      -0.563392       -15.3307
  32   2.0000      -0.553327       -15.0568
  33   2.0000      -0.543294       -14.7838
  34   2.0000      -0.520186       -14.1550
  35   2.0000      -0.497389       -13.5347
  36   2.0000      -0.470226       -12.7955
  37   2.0000      -0.447461       -12.1760
  38   2.0000      -0.434993       -11.8368
  39   2.0000      -0.430603       -11.7173
  40   2.0000      -0.413867       -11.2619
  41   2.0000      -0.404007       -10.9936
  42   2.0000      -0.399094       -10.8599
  43   2.0000      -0.391752       -10.6601
  44   2.0000      -0.385783       -10.4977
  45   2.0000      -0.378142       -10.2898
  46   2.0000      -0.375943       -10.2299
  47   2.0000      -0.366136        -9.9631
  48   2.0000      -0.352422        -9.5899
  49   2.0000      -0.338270        -9.2048
  50   2.0000      -0.331098        -9.0096
  51   2.0000      -0.328696        -8.9443
  52   2.0000      -0.318196        -8.6585
  53   2.0000      -0.308896        -8.4055
  54   2.0000      -0.304250        -8.2791
  55   2.0000      -0.301137        -8.1944
  56   2.0000      -0.273878        -7.4526
  57   2.0000      -0.246261        -6.7011
  58   2.0000      -0.242205        -6.5907
  59   2.0000      -0.232332        -6.3221
  60   2.0000      -0.212731        -5.7887
  61   2.0000      -0.192630        -5.2417
  62   0.0000      -0.115993        -3.1563
  63   0.0000      -0.059835        -1.6282
  64   0.0000      -0.048896        -1.3305
  65   0.0000      -0.045589        -1.2406
  66   0.0000      -0.011390        -0.3099

MULLIKEN ATOMIC CHARGES
-----------------------
   0 C :    0.030237
   1 C :    0.026074
   2 C :   -0.009257
   3 C :    0.043966
   4 C :   -0.020741
   5 C :   -0.022263
   6 C :    0.104203
   7 C :   -0.106921
   8 H :   -0.000734
   9 H :   -0.011313
  10 H :   -0.009628
  11 H :   -0.016197
  12 S :    0.076822
  13 O :   -0.139695
  14 C :   -0.026885
  15 C :    0.089776
  16 C :   -0.006269
  17 H :   -0.011401
  18 C :    0.011539
  19 H :   -0.008127
  20 C :    0.028520
  21 H :   -0.011559
  22 C :    0.031836
  23 H :   -0.008237
  24 C :   -0.025906
  25 H :   -0.011219
  26 H :    0.003381
Sum of atomic charges:    0.0000000

LOEWDIN ATOMIC CHARGES
----------------------
   0 C :   -0.003415
   1 C :   -0.031522
   2 C :    0.016803
   3 C :   -0.087374
   4 C :   -0.044608
   5 C :   -0.136307
   6 C :    0.036346
   7 C :   -0.194858
   8 H :    0.034090
   9 H :    0.030974
  10 H :    0.037133
  11 H :    0.032140
  12 S :    0.372187
  13 O :   -0.127468
  14 C :   -0.001775
  15 C :   -0.033139
  16 C :   -0.015575
  17 H :    0.015689
  18 C :   -0.022005
  19 H :    0.032132
  20 C :   -0.014414
  21 H :    0.029970
  22 C :   -0.024200
  23 H :    0.032202
  24 C :   -0.006734
  25 H :    0.031759
  26 H :    0.041970

  Mayer bond orders larger than 0.1
B(  0-C ,  1-C ) :   1.3459 B(  0-C ,  4-C ) :   1.3910 B(  0-C ,  8-H ) :   0.9790
B(  1-C ,  2-C ) :   1.3548 B(  1-C ,  9-H ) :   0.9855 B(  2-C ,  3-C ) :   1.3596
B(  2-C , 10-H ) :   0.9926 B(  3-C ,  5-C ) :   1.3424 B(  3-C ,  6-C ) :   0.9835
B(  4-C ,  5-C ) :   1.3716 B(  4-C , 11-H ) :   0.9872 B(  5-C , 12-S ) :   0.9905
B(  6-C ,  7-C ) :   0.9469 B(  6-C , 13-O ) :   2.1529 B(  7-C , 12-S ) :   1.0299
B(  7-C , 14-C ) :   1.6812 B( 14-C , 15-C ) :   1.0972 B( 14-C , 26-H ) :   0.9363
B( 15-C , 16-C ) :   1.3105 B( 15-C , 24-C ) :   1.3084 B( 16-C , 17-H ) :   0.9689
B( 16-C , 18-C ) :   1.4111 B( 18-C , 19-H ) :   0.9791 B( 18-C , 20-C ) :   1.3615
B( 20-C , 21-H ) :   0.9861 B( 20-C , 22-C ) :   1.3616 B( 22-C , 23-H ) :   0.9820
B( 22-C , 24-C ) :   1.3792 B( 24-C , 25-H ) :   0.9902

-----------------------------------------------------------------------------
         ABSORPTION SPECTRUM VIA TRANSITION ELECTRIC DIPOLE MOMENTS
-----------------------------------------------------------------------------
State   Energy    Wavelength  fosc         T2        TX        TY        TZ
        (cm-1)      (nm)                 (au**2)    (au)      (au)      (au)
-----------------------------------------------------------------------------
   1   21954.7    455.5   0.184479696   2.76628  -1.64113  -0.27011   0.00016
   2   22404.4    446.3   0.000004150   0.00006  -0.00303  -0.00047  -0.00718
   3   28195.8    354.7   0.165364372   1.93078  -1.37508  -0.19985   0.00060

FINAL SINGLE POINT ENERGY     -1049.372061087651

DIPOLE MOMENT
-------------
                                X             Y             Z
Electronic contribution:      5.67169      -0.23564       0.00192
Nuclear contribution   :     -4.51724      -1.41338      -0.00206
                        -----------------------------------------
Total Dipole Moment    :      1.15445      -1.64902      -0.00014
                        -----------------------------------------
Magnitude (a.u.)       :      2.01296
Magnitude (Debye)      :      5.11655

Rotational constants in cm-1:     0.044290     0.007164     0.006167
Rotational constants in MHz :  1327.789418   214.778184   184.873715

                             ****ORCA TERMINATED NORMALLY****
TOTAL RUN TIME: 0 days 0 hours 1 minutes 32 seconds 323 msec
